HEADER
"PSFversion" "1.00"
"design" "(\"MultiChannel_EMG_TestBench\" \"TCAimp_TB\" \"schematic\" \"\")"
"simulator" "spectre"
"temperature" "27"
"host" ""
"date" "Oct 11 08:35:48 2021"
"title" ""
"analysisList" "()"
END
