HEADER
"PSFversion" "1.00"
"E0n E1n" "analogLib_vcvs_spectre"
"I1n I38n" "analogLib_idc_spectre"
"IPRB4n IPRB5n" "analogLib_iprobe_spectre"
"M0n M1n M2n M4n" "PRIMLIB_pel_spectre"
"R2n R3n" "analogLib_res_spectre"
"V0n V1n V10n V11n V2n V9n" "analogLib_vsin_spectre"
"V3n V4n V7n V8n" "analogLib_vdc_spectre"
"I3n" "MultiChannel_EMG_Model_FrontEnd_Amplifier_verilogams"
"I34n I35n" "MultiChannel_EMG_Model_LPF_Butter_verilogams"
"I73n I74n" "MultiChannel_EMG_IMP_ChoppingTCA_DSL_imp_schematic"
"I76n I77n" "MultiChannel_EMG_IMP_Chopper_schematic"
"I79n" "MultiChannel_EMG_Model_ClockGenMultiFreq_functional"
