HEADER
"PSFversion" "1.00"
"design" "(\"MultiChannel_EMG_TestBench\" \"TCA_DSL_Chopping_TB\" \"config\" \"\")"
"simulator" "ams"
"temperature" "27"
"host" ""
"date" "Oct 11 08:36:41 2021"
"title" ""
"analysisList" "()"
END
