HEADER
"PSFversion" "1.00"
"design" "(\"Device_Characteristics\" \"FastBias_pel\" \"schematic\" \"\")"
"simulator" "spectre"
"temperature" "27"
"host" ""
"date" "Oct  4 11:55:29 2021"
"title" ""
"analysisList" "()"
END
