HEADER
"PSFversion" "1.00"
"Time Stamp" "Oct  7 16:00:36 2021"
TYPE
"variable" STRUCT(
"value" FLOAT DOUBLE
) PROP( "key" "element" )
VALUE
"Vos" "variable" ( 0 ) PROP( )
"Freq_input" "variable" ( 500 ) PROP( )
"Amp_input" "variable" ( 100e-6 ) PROP( )
"CM_DC" "variable" ( 900e-3 ) PROP( )
"temp" "variable" ( 27 ) PROP( )
END
