HEADER
"PSFversion" "1.00"
"__NEXT_FILE__" "TCA_DSL_TB"
