HEADER
"PSFversion" "1.00"
"__artInstanceTerminalDelimiter__" "."
"__artHierarchyDelimiter__" "."
"__netlister__" "AMS-UNL"
"__lib__" "MultiChannel_EMG_Model"
"__cell__" "TCA_DSL"
"__view__" "config"
"__topcell__" "TCA_DSL"
"__outputformat__" "sst2"
