HEADER
"PSFversion" "1.00"
"M1n M0n M31n M29n" "PRIMLIB_ne_spectre"
"I3n I1n I36n I30n" "analogLib_isin_spectre"
"V9n V10n" "analogLib_vsin_spectre"
"R6n R5n R2n R1n R0n R10n" "analogLib_res_spectre"
"M3n M2n M53n M52n M51n" "PRIMLIB_pe_spectre"
"C9n C8n" "analogLib_cap_spectre"
"IPRB3n IPRB0n" "analogLib_iprobe_spectre"
"V4n" "analogLib_vdc_spectre"
