HEADER
"PSFversion" "1.00"
"Time Stamp" "Oct  1 14:23:40 2021"
TYPE
"variable" STRUCT(
"value" FLOAT DOUBLE
) PROP( "key" "element" )
VALUE
"VOS" "variable" ( 10e-3 ) PROP( )
"freq_input" "variable" ( 500 ) PROP( )
"AMP_input" "variable" ( 100e-6 ) PROP( )
"temp" "variable" ( 27 ) PROP( )
END
