HEADER
"PSFversion" "1.00"
"__NEXT_FILE__" "MultiChannel_EMG_Model_TCA_DSL_schematic"
