HEADER
"PSFversion" "1.00"
"Time Stamp" "Oct  8 16:48:13 2021"
TYPE
"variable" STRUCT(
"value" FLOAT DOUBLE
) PROP( "key" "element" )
VALUE
"Vos" "variable" ( 10e-3 ) PROP( )
"Freq_input" "variable" ( 500 ) PROP( )
"CM_DC" "variable" ( 900e-3 ) PROP( )
"Amp_input" "variable" ( 0 ) PROP( )
"Fchop" "variable" ( 16 ) PROP( )
"temp" "variable" ( 27 ) PROP( )
END
