HEADER
"PSFversion" "1.00"
"Voutpv" ".Voutpv"
"Voutnv" ".Voutnv"
"Vinpv" ".Vinpv"
"Vinnv" ".Vinnv"
"Vcmv" ".Vcmv"
"Vsubv" ".Vsubv"
"VDDAv" ".VDDAv"
"VSSAv" ".VSSAv"
