HEADER
"PSFversion" "1.00"
"design" "(\"MultiChannel_EMG_Model\" \"TCA_DSL\" \"config\" \"\")"
"simulator" "ams"
"temperature" "27"
"host" ""
"date" "Oct  1 10:55:39 2021"
"title" ""
"analysisList" "()"
END
