HEADER
"PSFversion" "1.00"
"Time Stamp" "Oct  1 10:55:39 2021"
TYPE
"variable" STRUCT(
"value" FLOAT DOUBLE
) PROP( "key" "element" )
VALUE
"VOS" "variable" ( 20e-3 ) PROP( )
"temp" "variable" ( 27 ) PROP( )
END
