HEADER
"PSFversion" "1.00"
"Time Stamp" "Sep 30 11:10:07 2021"
TYPE
"variable" STRUCT(
"value" FLOAT DOUBLE
) PROP( "key" "element" )
VALUE
"Rint" "variable" ( 500e3 ) PROP( )
"temp" "variable" ( 27.0 ) PROP( )
END
