HEADER
"PSFversion" "1.00"
"M0n" "PRIMLIB_ne_spectre"
"I0n" "analogLib_idc_spectre"
"E0n" "analogLib_vcvs_spectre"
"V0n" "analogLib_vdc_spectre"
