HEADER
"PSFversion" "1.00"
"Time Stamp" "Oct  8 15:51:12 2021"
TYPE
"variable" STRUCT(
"value" FLOAT DOUBLE
) PROP( "key" "element" )
VALUE
"Vos" "variable" ( 50e-3 ) PROP( )
"Freq_input" "variable" ( 500 ) PROP( )
"CM_DC" "variable" ( 900e-3 ) PROP( )
"Amp_input" "variable" ( 1e-3 ) PROP( )
"temp" "variable" ( 27 ) PROP( )
END
