HEADER
"PSFversion" "1.00"
"design" "(\"MultiChannel_EMG_Model\" \"NoiseSim_TCA\" \"schematic\" \"\")"
"simulator" "spectre"
"temperature" "27"
"host" ""
"date" "Oct  1 17:02:05 2021"
"title" ""
"analysisList" "()"
END
