HEADER
"PSFversion" "1.00"
"CLKv" ".CLKv"
"CLKBv" ".CLKBv"
