HEADER
"PSFversion" "1.00"
"Av" "(FUNCTION or(mappedRoot(\".1@index\") mappedRoot(\".A\")))v"
"Av" ".Av"
"Av" ".\\1 v"
"Bv" "(FUNCTION or(mappedRoot(\".2@index\") mappedRoot(\".B\")))v"
"Bv" ".Bv"
"Bv" ".\\2 v"
"ctrlv" "(FUNCTION or(mappedRoot(\".4@index\") mappedRoot(\".ctrl\")))v"
"ctrlv" ".ctrlv"
"ctrlv" ".\\4 v"
"VSSAv" "(FUNCTION or(mappedRoot(\".3@index\") mappedRoot(\".VSSA\")))v"
"VSSAv" ".VSSAv"
"VSSAv" ".\\3 v"
