HEADER
"PSFversion" "1.00"
"__NEXT_FILE__" "MultiChannel_EMG_TestBench_MultiChannelAFE_TB_2_schematic"
