HEADER
"PSFversion" "1.00"
"outv" ".outv"
"ctrlv" ".ctrlv"
"inv" ".inv"
"VSSAv" ".VSSAv"
