HEADER
"PSFversion" "1.00"
"Time Stamp" "Oct  1 10:53:37 2021"
TYPE
"variable" STRUCT(
"value" FLOAT DOUBLE
) PROP( "key" "element" )
VALUE
"VOS" "variable" ( 0 ) PROP( )
"temp" "variable" ( 27 ) PROP( )
END
