HEADER
"PSFversion" "1.00"
"design" "(\"MultiChannel_EMG_TestBench\" \"MultiChannelAFE_TB_2\" \"config\" \"\")"
"simulator" "ams"
"temperature" "27"
"host" ""
"date" "Oct 11 10:58:03 2021"
"title" ""
"analysisList" "()"
END
