HEADER
"PSFversion" "1.00"
"__artInstanceTerminalDelimiter__" "."
"__artHierarchyDelimiter__" "."
"__netlister__" "AMS-UNL"
"__lib__" "MultiChannel_EMG_TestBench"
"__cell__" "MultiChannelAFE_TB_2"
"__view__" "config"
"__topcell__" "MultiChannelAFE_TB_2"
"__outputformat__" "sst2"
