HEADER
"PSFversion" "1.00"
"__NEXT_FILE__" "MultiChannel_EMG_TestBench_TCA_DSL_Chopping_TB_schematic"
