HEADER
"PSFversion" "1.00"
"M31n M29n M27n M28n M20n M21n M15n M2n" "PRIMLIB_ne_spectre"
"V2n V4n" "analogLib_vdc_spectre"
"M53n M52n M51n M38n M37n M48n M43n M34n M47n M42n M41n M40n M39n M44n M46n M30n M45n M0n M7n M13n M12n M1n M3n M6n M10n" "PRIMLIB_pe_spectre"
"I1n" "analogLib_idc_spectre"
"V10n V9n V8n V7n V1n V0n" "analogLib_vsin_spectre"
"IPRB2n IPRB3n IPRB1n IPRB0n" "analogLib_iprobe_spectre"
"R1n" "PRIMLIB_rpp1k1_spectre"
"C9n C8n C7n" "analogLib_cap_spectre"
"R11n R10n R8n R4n R9n" "analogLib_res_spectre"
"I36n I30n I20n I15n I13n I19n I26n I11n I9n" "analogLib_isin_spectre"
