HEADER
"PSFversion" "1.00"
"M0n" "PRIMLIB_ne_spectre"
"I7n I0n" "analogLib_idc_spectre"
"V7n V10n V11n V6n V1n V0n" "analogLib_vdc_spectre"
"E3n E0n" "analogLib_vcvs_spectre"
"IPRB2n IPRB0n" "analogLib_iprobe_spectre"
"V5n V2n" "analogLib_vsin_spectre"
"R3n R0n" "analogLib_res_spectre"
"M1n" "PRIMLIB_pe_spectre"
