HEADER
"PSFversion" "1.00"
"design" "(\"MultiChannel_EMG_IMP\" \"TCA_DSL_v3\" \"schematic\" \"\")"
"simulator" "spectre"
"temperature" "27"
"host" ""
"date" "Oct  1 14:08:46 2021"
"title" ""
"analysisList" "()"
END
