HEADER
"PSFversion" "1.00"
"__NEXT_FILE__" "PseudoResistor_TB"
