HEADER
"PSFversion" "1.00"
"Av" "(FUNCTION or(mappedRoot(\".1@index\") mappedRoot(\".A\")))v"
"Av" ".Av"
"Av" ".\\1 v"
"Bv" "(FUNCTION or(mappedRoot(\".2@index\") mappedRoot(\".B\")))v"
"Bv" ".Bv"
"Bv" ".\\2 v"
