HEADER
"PSFversion" "1.00"
"design" "(\"MultiChannel_EMG_IMP\" \"TCA_3\" \"schematic\" \"\")"
"simulator" "spectre"
"temperature" "27"
"host" ""
"date" "Oct  4 10:46:12 2021"
"title" ""
"analysisList" "()"
END
