HEADER
"PSFversion" "1.00"
"M7n M6n M5n M4n" "PRIMLIB_pel_spectre"
"Av" ":1v"
"Bv" ":2v"
