HEADER
"PSFversion" "1.00"
"design" "(\"MultiChannel_EMG_Model\" \"DSL\" \"schematic\" \"\")"
"simulator" "spectre"
"temperature" "27"
"host" ""
"date" "Oct  1 09:40:51 2021"
"title" ""
"analysisList" "()"
END
