HEADER
"PSFversion" "1.00"
"Time Stamp" "Oct  1 09:40:51 2021"
TYPE
"variable" STRUCT(
"value" FLOAT DOUBLE
) PROP( "key" "element" )
VALUE
"Rint" "variable" ( 16e9 ) PROP( )
"temp" "variable" ( 27 ) PROP( )
END
