HEADER
"PSFversion" "1.00"
"PLUSv" ":inv"
"MINUSv" "(FUNCTION minus(root(\"PLUS\")))v"
