HEADER
"PSFversion" "1.00"
"V3n V2n V5n V4n" "analogLib_vdc_spectre"
"M31n M30n M27n M25n M23n M22n M17n M8n M0n M1n M7n M6n M13n M3n M12n M10n" "PRIMLIB_pe_spectre"
"IPRB1n IPRB0n" "analogLib_iprobe_spectre"
"M29n M28n M19n M18n M16n M20n M21n M2n M15n" "PRIMLIB_ne_spectre"
"R4n R3n R2n R1n R0n" "analogLib_res_spectre"
"V0n V1n" "analogLib_vsin_spectre"
"I16n I15n I14n I13n I0n I7n I5n I1n" "analogLib_idc_spectre"
"C1n C0n" "analogLib_cap_spectre"
"M5n M4n" "PRIMLIB_nel_spectre"
