HEADER
"PSFversion" "1.00"
"I5n I4n I3n I2n I1n I0n" "Bias_nel"
