HEADER
"PSFversion" "1.00"
"Voutpv" ".Voutpv"
"Voutnv" ".Voutnv"
"Vinpv" ".Vinpv"
"Vinnv" ".Vinnv"
"VDDAv" ".VDDAv"
"VSSAv" ".VSSAv"
"VCMv" ".VCMv"
