HEADER
"PSFversion" "1.00"
"design" "(\"Device_Characteristics\" \"FastBias_ne\" \"schematic\" \"\")"
"simulator" "spectre"
"temperature" "27"
"host" ""
"date" "Sep 30 10:23:17 2021"
"title" ""
"analysisList" "()"
END
